/*--------------------------------*- C++ -*----------------------------------*\
| =========                 |                                                 |
| \\      /  F ield         | OpenFOAM: The Open Source CFD Toolbox           |
|  \\    /   O peration     | Version:  3.0.1                                 |
|   \\  /    A nd           | Web:      www.OpenFOAM.org                      |
|    \\/     M anipulation  |                                                 |
\*---------------------------------------------------------------------------*/
FoamFile
{
    version     2.0;
    format      ascii;
    class       volScalarField;
    location    "3";
    object      nut;
}
// * * * * * * * * * * * * * * * * * * * * * * * * * * * * * * * * * * * * * //

dimensions      [0 2 -1 0 0 0 0];

internalField   nonuniform List<scalar> 
90
(
1.24069e-44
4.01199e-43
3.18959e-44
7.7416e-42
2.27736e-40
6.89433e-41
9.78525e-46
4.3059e-45
3.14437e-47
1.87912e-53
1.15615e-52
2.38816e-53
2.74696e-61
7.7324e-61
1.27179e-61
2.98279e-44
4.30159e-44
1.71431e-46
1.07764e-41
1.86252e-40
9.99395e-41
2.26206e-45
5.95774e-45
2.10765e-46
2.52174e-53
1.51491e-52
3.45685e-53
1.21386e-61
7.87461e-61
3.8062e-62
5.58652e-44
1.75566e-43
2.96025e-45
2.15116e-41
4.80608e-40
1.22702e-40
5.08338e-45
2.9109e-45
1.20114e-48
7.55404e-54
1.09588e-52
1.34746e-53
2.34151e-61
1.5392e-60
2.93881e-62
2.10919e-61
1.16143e-60
3.09178e-62
1.91979e-53
1.23032e-52
6.71386e-53
4.95312e-45
6.00173e-45
2.02112e-46
7.18289e-42
2.59392e-40
5.28888e-41
3.08492e-44
4.32911e-44
3.34131e-45
1.24336e-61
1.10479e-60
3.5076e-62
3.64054e-54
9.36544e-53
2.15838e-53
3.18541e-45
4.09235e-45
2.46582e-47
7.92946e-42
1.31668e-40
4.08114e-41
2.33522e-44
2.83993e-44
4.91327e-46
7.20864e-61
1.26396e-60
4.5885e-62
7.71772e-54
1.22159e-52
2.97159e-53
2.6794e-45
4.47696e-45
2.75734e-47
4.32036e-41
1.84586e-40
4.76031e-41
1.81066e-44
4.2598e-44
7.63605e-47
)
;

boundaryField
{
    inlet
    {
        type            cyclic;
    }
    outlet
    {
        type            cyclic;
    }
    bottomWall
    {
        type            EquilibriumODEWallModel;
        EddyViscosity   
        {               
            type            JohnsonKing;
            APlus           17.8;
            kappa           0.39;
        }               
        value           nonuniform List<scalar> 9(0.00028718 0.00028718 0.00028718 0.00028718 0.00028718 0.00028718 0.00028718 0.00028718 0.00028718);
    }
    topWall
    {
        type            nutUSpaldingWallFunction;
        Cmu             0.09;
        kappa           0.42;
        E               8.52;
        value           nonuniform List<scalar> 9(0.000336192 0.000336192 0.000336192 0.000336192 0.000336192 0.000336192 0.000336192 0.000336192 0.000336192);
    }
    left
    {
        type            cyclic;
    }
    right
    {
        type            cyclic;
    }
}


// ************************************************************************* //
