/*--------------------------------*- C++ -*----------------------------------*\
| =========                 |                                                 |
| \\      /  F ield         | OpenFOAM: The Open Source CFD Toolbox           |
|  \\    /   O peration     | Version:  3.0.1                                 |
|   \\  /    A nd           | Web:      www.OpenFOAM.org                      |
|    \\/     M anipulation  |                                                 |
\*---------------------------------------------------------------------------*/
FoamFile
{
    version     2.0;
    format      ascii;
    class       volScalarField;
    location    "3";
    object      p;
}
// * * * * * * * * * * * * * * * * * * * * * * * * * * * * * * * * * * * * * //

dimensions      [0 2 -2 0 0 0 0];

internalField   nonuniform List<scalar> 
90
(
-2.18931e-14
-1.13104e-13
-6.11094e-14
-2.2708e-14
-1.1574e-13
-5.90704e-14
-2.2547e-14
-1.15993e-13
-6.08221e-14
-2.34358e-14
-1.17183e-13
-5.99165e-14
-2.44002e-14
-1.16394e-13
-6.07124e-14
-3.20769e-14
-1.125e-13
-6.18535e-14
-3.27611e-14
-1.14313e-13
-6.04653e-14
-3.08017e-14
-1.14514e-13
-6.14263e-14
-3.06689e-14
-1.15529e-13
-6.05626e-14
-3.02118e-14
-1.14921e-13
-6.03758e-14
-2.7096e-14
-1.1755e-13
-6.46299e-14
-2.77065e-14
-1.17686e-13
-6.32563e-14
-2.78206e-14
-1.15965e-13
-6.46079e-14
-2.96554e-14
-1.1492e-13
-6.31196e-14
-3.05395e-14
-1.1307e-13
-6.35432e-14
-2.52041e-14
-1.15442e-13
-6.00826e-14
-2.75871e-14
-1.13777e-13
-6.04065e-14
-2.82258e-14
-1.11278e-13
-6.20839e-14
-3.04825e-14
-1.10428e-13
-6.08298e-14
-2.98274e-14
-1.09132e-13
-6.29106e-14
-3.10332e-14
-1.13124e-13
-6.12496e-14
-3.22685e-14
-1.10882e-13
-6.07492e-14
-3.42925e-14
-1.0742e-13
-6.30212e-14
-3.67326e-14
-1.05714e-13
-6.18828e-14
-3.71111e-14
-1.03923e-13
-6.39987e-14
-3.32919e-14
-1.10167e-13
-6.36435e-14
-3.62672e-14
-1.07498e-13
-6.30683e-14
-3.87582e-14
-1.03966e-13
-6.43423e-14
-4.20032e-14
-1.01937e-13
-6.25943e-14
-4.27105e-14
-9.9681e-14
-6.39936e-14
)
;

boundaryField
{
    inlet
    {
        type            cyclic;
    }
    outlet
    {
        type            cyclic;
    }
    bottomWall
    {
        type            zeroGradient;
    }
    topWall
    {
        type            zeroGradient;
    }
    left
    {
        type            cyclic;
    }
    right
    {
        type            cyclic;
    }
}


// ************************************************************************* //
