/*--------------------------------*- C++ -*----------------------------------*\
| =========                 |                                                 |
| \\      /  F ield         | OpenFOAM: The Open Source CFD Toolbox           |
|  \\    /   O peration     | Version:  3.0.1                                 |
|   \\  /    A nd           | Web:      www.OpenFOAM.org                      |
|    \\/     M anipulation  |                                                 |
\*---------------------------------------------------------------------------*/
FoamFile
{
    version     2.0;
    format      ascii;
    class       surfaceScalarField;
    location    "3";
    object      phi;
}
// * * * * * * * * * * * * * * * * * * * * * * * * * * * * * * * * * * * * * //

dimensions      [0 3 -1 0 0 0 0];

internalField   nonuniform List<scalar> 
201
(
0.254621
7.96353e-14
-1.63679e-17
0.254621
6.45645e-14
7.50526e-16
-1.34701e-13
3.37833e-16
0.269859
7.35718e-14
-2.93746e-18
0.269859
3.69584e-14
6.3363e-16
-9.529e-14
4.15659e-16
0.269917
5.57623e-14
-8.89544e-17
0.269917
2.54603e-14
6.53222e-16
-6.16703e-14
2.62385e-16
0.269917
3.3354e-14
-4.79708e-17
0.269917
1.23947e-14
5.11016e-16
-2.78168e-14
3.98928e-16
0.269917
-2.32852e-16
9.3558e-16
0.269917
4.69497e-16
5.12745e-15
2.10443e-16
2.61616e-15
0.254621
7.84135e-14
-9.67589e-16
0.254621
4.81457e-14
1.39056e-15
-1.26245e-13
3.29202e-16
0.269859
6.80636e-14
-1.03016e-15
0.269859
2.42505e-14
1.43568e-15
-9.55279e-14
3.01703e-16
0.269917
4.92844e-14
-9.65688e-16
0.269917
1.10886e-14
1.56022e-15
-6.36869e-14
3.25707e-16
0.269917
2.01524e-14
-9.75846e-16
0.269917
4.60677e-15
1.54619e-15
-3.42981e-14
2.17907e-16
0.269917
-8.94099e-16
-6.79047e-15
0.269917
1.58645e-15
2.18522e-15
2.74974e-16
-4.81056e-16
0.254621
7.5439e-14
0.254621
5.95572e-14
-1.33175e-13
0.269859
6.70825e-14
0.269859
3.96227e-14
-1.02314e-13
0.269917
4.95019e-14
0.269917
1.99954e-14
-7.06922e-14
0.269917
3.16002e-14
0.269917
6.43369e-15
-3.67539e-14
0.269917
7.91006e-15
0.269917
4.75838e-15
-3.10995e-15
0.269917
-1.99412e-14
-1.64881e-16
0.269917
-4.11847e-15
5.03926e-16
3.73486e-14
3.07435e-16
0.269917
-4.94301e-14
-3.07858e-16
0.269917
-1.82925e-14
3.96655e-16
7.13821e-14
2.23254e-16
0.269917
-7.41435e-14
-2.13027e-16
0.269917
-3.03429e-14
4.74551e-16
1.0249e-13
2.22584e-16
0.269852
-8.40405e-14
-2.6239e-16
0.269852
-5.26271e-14
4.18957e-16
1.41462e-13
2.69501e-16
0.252679
-1.44094e-16
0.252679
3.09038e-16
2.63889e-16
0.269917
-2.6123e-14
-6.21058e-16
0.269917
-8.07139e-15
1.52042e-15
3.30632e-14
1.89048e-16
0.269917
-4.88407e-14
-7.53595e-16
0.269917
-1.75509e-14
1.66531e-15
6.91267e-14
2.2369e-16
0.269917
-7.2448e-14
-6.24432e-16
0.269917
-3.2053e-14
1.56242e-15
1.03725e-13
1.33159e-16
0.269852
-7.9063e-14
-5.75629e-16
0.269852
-5.76649e-14
1.64589e-15
1.39517e-13
1.33327e-16
0.252679
-6.23264e-16
0.252679
1.58501e-15
8.86912e-17
0.269917
-2.48634e-14
0.269917
-2.8554e-15
3.01758e-14
0.269917
-4.08615e-14
0.269917
-1.718e-14
6.29469e-14
0.269917
-6.69929e-14
0.269917
-2.94255e-14
9.95075e-14
0.269852
-8.54007e-14
0.269852
-5.48553e-14
1.37872e-13
0.252679
0.252679
)
;

boundaryField
{
    inlet
    {
        type            cyclic;
        value           nonuniform List<scalar> 
30
(
-0.254621
-0.269859
-0.269917
-0.269917
-0.269917
-0.254621
-0.269859
-0.269917
-0.269917
-0.269917
-0.254621
-0.269859
-0.269917
-0.269917
-0.269917
-0.269917
-0.269917
-0.269917
-0.269852
-0.252679
-0.269917
-0.269917
-0.269917
-0.269852
-0.252679
-0.269917
-0.269917
-0.269917
-0.269852
-0.252679
)
;
    }
    outlet
    {
        type            cyclic;
        value           nonuniform List<scalar> 
30
(
0.254621
0.269859
0.269917
0.269917
0.269917
0.254621
0.269859
0.269917
0.269917
0.269917
0.254621
0.269859
0.269917
0.269917
0.269917
0.269917
0.269917
0.269917
0.269852
0.252679
0.269917
0.269917
0.269917
0.269852
0.252679
0.269917
0.269917
0.269917
0.269852
0.252679
)
;
    }
    bottomWall
    {
        type            calculated;
        value           uniform 0;
    }
    topWall
    {
        type            calculated;
        value           uniform 0;
    }
    left
    {
        type            cyclic;
        value           nonuniform List<scalar> 
30
(
-8.82585e-16
-9.2034e-16
-9.64376e-16
-9.4156e-16
-1.07122e-15
2.16959e-15
2.03888e-15
2.15241e-15
1.94179e-15
1.93475e-15
7.06028e-16
7.54913e-16
6.19826e-16
6.46856e-16
5.12481e-16
-8.01703e-16
-1.07319e-15
-8.58281e-16
-8.61569e-16
-7.86353e-16
1.90841e-15
1.93583e-15
1.91336e-15
1.93381e-15
1.75737e-15
5.23143e-16
4.72256e-16
3.78763e-16
4.28779e-16
3.77185e-16
)
;
    }
    right
    {
        type            cyclic;
        value           nonuniform List<scalar> 
30
(
8.82585e-16
9.2034e-16
9.64376e-16
9.4156e-16
1.07122e-15
-2.16959e-15
-2.03888e-15
-2.15241e-15
-1.94179e-15
-1.93475e-15
-7.06028e-16
-7.54913e-16
-6.19826e-16
-6.46856e-16
-5.12481e-16
8.01703e-16
1.07319e-15
8.58281e-16
8.61569e-16
7.86353e-16
-1.90841e-15
-1.93583e-15
-1.91336e-15
-1.93381e-15
-1.75737e-15
-5.23143e-16
-4.72256e-16
-3.78763e-16
-4.28779e-16
-3.77185e-16
)
;
    }
}


// ************************************************************************* //
