/*--------------------------------*- C++ -*----------------------------------*\
| =========                 |                                                 |
| \\      /  F ield         | OpenFOAM: The Open Source CFD Toolbox           |
|  \\    /   O peration     | Version:  3.0.1                                 |
|   \\  /    A nd           | Web:      www.OpenFOAM.org                      |
|    \\/     M anipulation  |                                                 |
\*---------------------------------------------------------------------------*/
FoamFile
{
    version     2.0;
    format      ascii;
    class       surfaceScalarField;
    location    "3";
    object      phi_0;
}
// * * * * * * * * * * * * * * * * * * * * * * * * * * * * * * * * * * * * * //

dimensions      [0 3 -1 0 0 0 0];

internalField   nonuniform List<scalar> 
201
(
0.25466
7.95388e-14
-2.6329e-17
0.25466
6.41097e-14
7.27892e-16
-1.34379e-13
3.44842e-16
0.269849
7.34181e-14
-1.20281e-17
0.269849
3.6671e-14
6.12574e-16
-9.50981e-14
4.21682e-16
0.269907
5.56208e-14
-9.50523e-17
0.269907
2.52516e-14
6.33957e-16
-6.15342e-14
2.69482e-16
0.269907
3.33044e-14
-5.01638e-17
0.269907
1.22666e-14
4.92159e-16
-2.77635e-14
4.05629e-16
0.269907
-2.3287e-16
8.93927e-16
0.269907
4.50629e-16
5.05833e-15
2.17692e-16
2.71241e-15
0.25466
7.83276e-14
-9.54289e-16
0.25466
4.78339e-14
1.38991e-15
-1.25954e-13
3.12213e-16
0.269849
6.80475e-14
-1.0149e-15
0.269849
2.41007e-14
1.4367e-15
-9.52833e-14
2.85194e-16
0.269907
4.93424e-14
-9.53748e-16
0.269907
1.09705e-14
1.56398e-15
-6.35299e-14
3.08534e-16
0.269907
2.02268e-14
-9.6774e-16
0.269907
4.54534e-15
1.55329e-15
-3.41829e-14
2.0143e-16
0.269907
-8.89167e-16
-6.76165e-15
0.269907
1.59624e-15
2.30311e-15
2.56762e-16
-5.36842e-16
0.25466
7.5442e-14
0.25466
5.9303e-14
-1.32864e-13
0.269849
6.69329e-14
0.269849
3.95645e-14
-1.02087e-13
0.269907
4.93888e-14
0.269907
1.99965e-14
-7.05018e-14
0.269907
3.15316e-14
0.269907
6.43727e-15
-3.66668e-14
0.269907
7.81971e-15
0.269907
4.88077e-15
-3.09197e-15
0.269907
-1.99312e-14
-1.6355e-16
0.269907
-4.12079e-15
4.885e-16
3.72338e-14
3.09963e-16
0.269907
-4.93888e-14
-3.05064e-16
0.269907
-1.81758e-14
3.82818e-16
7.12134e-14
2.26419e-16
0.269907
-7.40059e-14
-2.12512e-16
0.269907
-3.01709e-14
4.6294e-16
1.0215e-13
2.24315e-16
0.269842
-8.39315e-14
-2.64365e-16
0.269842
-5.22902e-14
4.08948e-16
1.41004e-13
2.71444e-16
0.252723
-1.4861e-16
0.252723
2.98171e-16
2.66903e-16
0.269907
-2.60538e-14
-6.18707e-16
0.269907
-7.94676e-15
1.53109e-15
3.29775e-14
1.7262e-16
0.269907
-4.89132e-14
-7.5508e-16
0.269907
-1.73068e-14
1.67661e-15
6.8895e-14
2.07759e-16
0.269907
-7.24369e-14
-6.25808e-16
0.269907
-3.17959e-14
1.57166e-15
1.03409e-13
1.20428e-16
0.269842
-7.90779e-14
-5.79308e-16
0.269842
-5.7331e-14
1.65527e-15
1.39125e-13
1.24493e-16
0.252723
-6.28378e-16
0.252723
1.59489e-15
8.29689e-17
0.269907
-2.49743e-14
0.269907
-2.75224e-15
3.01681e-14
0.269907
-4.08969e-14
0.269907
-1.70655e-14
6.28697e-14
0.269907
-6.70583e-14
0.269907
-2.91802e-14
9.93554e-14
0.269842
-8.54353e-14
0.269842
-5.45139e-14
1.37575e-13
0.252723
0.252723
)
;

boundaryField
{
    inlet
    {
        type            cyclic;
        value           nonuniform List<scalar> 
30
(
-0.25466
-0.269849
-0.269907
-0.269907
-0.269907
-0.25466
-0.269849
-0.269907
-0.269907
-0.269907
-0.25466
-0.269849
-0.269907
-0.269907
-0.269907
-0.269907
-0.269907
-0.269907
-0.269842
-0.252723
-0.269907
-0.269907
-0.269907
-0.269842
-0.252723
-0.269907
-0.269907
-0.269907
-0.269842
-0.252723
)
;
    }
    outlet
    {
        type            cyclic;
        value           nonuniform List<scalar> 
30
(
0.25466
0.269849
0.269907
0.269907
0.269907
0.25466
0.269849
0.269907
0.269907
0.269907
0.25466
0.269849
0.269907
0.269907
0.269907
0.269907
0.269907
0.269907
0.269842
0.252723
0.269907
0.269907
0.269907
0.269842
0.252723
0.269907
0.269907
0.269907
0.269842
0.252723
)
;
    }
    bottomWall
    {
        type            calculated;
        value           uniform 0;
    }
    topWall
    {
        type            calculated;
        value           uniform 0;
    }
    left
    {
        type            cyclic;
        value           nonuniform List<scalar> 
30
(
-8.85827e-16
-9.18468e-16
-9.61227e-16
-9.37453e-16
-1.06658e-15
2.14973e-15
2.02609e-15
2.14503e-15
1.93573e-15
1.93156e-15
6.97039e-16
7.44544e-16
6.09372e-16
6.36617e-16
5.01337e-16
-7.98687e-16
-1.07353e-15
-8.62276e-16
-8.70398e-16
-8.00277e-16
1.90994e-15
1.94095e-15
1.91871e-15
1.94124e-15
1.76518e-15
5.09178e-16
4.5951e-16
3.6771e-16
4.21366e-16
3.73788e-16
)
;
    }
    right
    {
        type            cyclic;
        value           nonuniform List<scalar> 
30
(
8.85827e-16
9.18468e-16
9.61227e-16
9.37453e-16
1.06658e-15
-2.14973e-15
-2.02609e-15
-2.14503e-15
-1.93573e-15
-1.93156e-15
-6.97039e-16
-7.44544e-16
-6.09372e-16
-6.36617e-16
-5.01337e-16
7.98687e-16
1.07353e-15
8.62276e-16
8.70398e-16
8.00277e-16
-1.90994e-15
-1.94095e-15
-1.91871e-15
-1.94124e-15
-1.76518e-15
-5.09178e-16
-4.5951e-16
-3.6771e-16
-4.21366e-16
-3.73788e-16
)
;
    }
}


// ************************************************************************* //
