/*--------------------------------*- C++ -*----------------------------------*\
| =========                 |                                                 |
| \\      /  F ield         | OpenFOAM: The Open Source CFD Toolbox           |
|  \\    /   O peration     | Version:  3.0.1                                 |
|   \\  /    A nd           | Web:      www.OpenFOAM.org                      |
|    \\/     M anipulation  |                                                 |
\*---------------------------------------------------------------------------*/
FoamFile
{
    version     2.0;
    format      ascii;
    class       volVectorField;
    location    "3";
    object      U;
}
// * * * * * * * * * * * * * * * * * * * * * * * * * * * * * * * * * * * * * //

dimensions      [0 1 -1 0 0 0 0];

internalField   nonuniform List<vector> 
90
(
(0.954884 1.55361e-14 2.81389e-15)
(0.954884 1.63229e-14 -4.02464e-15)
(0.954884 -3.04608e-14 -1.26611e-15)
(1.01203 2.36028e-14 3.06166e-15)
(1.01203 1.45402e-14 -4.23959e-15)
(1.01203 -3.44148e-14 -1.13847e-15)
(1.01225 1.42815e-14 2.97138e-15)
(1.01225 4.88467e-15 -4.70884e-15)
(1.01225 -1.53584e-14 -1.1699e-15)
(1.01225 1.31384e-14 3.08792e-15)
(1.01225 7.02763e-15 -4.71568e-15)
(1.01225 -1.39663e-14 -8.40782e-16)
(1.01225 3.0296e-15 2.91275e-15)
(1.01225 -3.93605e-16 -4.87809e-15)
(1.01225 -7.26554e-16 -9.95792e-16)
(0.954884 1.58579e-14 -3.36519e-15)
(0.954884 1.24393e-14 7.02149e-15)
(0.954884 -2.70995e-14 2.18944e-15)
(1.01203 2.20957e-14 -3.5684e-15)
(1.01203 1.05591e-14 6.84572e-15)
(1.01203 -3.39013e-14 2.28234e-15)
(1.01225 1.35349e-14 -3.73851e-15)
(1.01225 2.14209e-15 7.37863e-15)
(1.01225 -1.57386e-14 1.83245e-15)
(1.01225 1.00529e-14 -3.70661e-15)
(1.01225 2.94653e-15 6.91155e-15)
(1.01225 -1.48641e-14 1.92598e-15)
(1.01225 4.91603e-16 -4.14271e-15)
(1.01225 -4.07465e-16 6.93572e-15)
(1.01225 -2.63795e-15 1.52365e-15)
(0.954884 1.49642e-14 5.51292e-16)
(0.954884 1.37054e-14 -2.99686e-15)
(0.954884 -2.89218e-14 -9.23332e-16)
(1.01203 2.15076e-14 5.06747e-16)
(1.01203 1.52367e-14 -2.60614e-15)
(1.01203 -3.55431e-14 -1.14388e-15)
(1.01225 1.33609e-14 7.67129e-16)
(1.01225 5.31776e-15 -2.6698e-15)
(1.01225 -1.77268e-14 -6.62548e-16)
(1.01225 1.04437e-14 6.18684e-16)
(1.01225 4.0749e-15 -2.19587e-15)
(1.01225 -1.60248e-14 -1.0852e-15)
(1.01225 6.03262e-15 1.22996e-15)
(1.01225 -5.79021e-16 -2.05763e-15)
(1.01225 -3.1156e-15 -5.27863e-16)
(1.01225 -2.40618e-15 2.25677e-15)
(1.01225 2.84595e-15 -4.68995e-15)
(1.01225 2.15656e-15 -7.69135e-16)
(1.01225 -8.38325e-15 2.68102e-15)
(1.01225 -4.98111e-15 -5.12346e-15)
(1.01225 1.72694e-14 -8.91188e-16)
(1.01225 -1.5033e-14 2.27022e-15)
(1.01225 -3.57259e-15 -4.79196e-15)
(1.01225 1.67225e-14 -6.27045e-16)
(1.012 -2.38091e-14 2.10992e-15)
(1.012 -1.21843e-14 -5.05675e-15)
(1.012 3.68103e-14 -6.08751e-16)
(0.9476 -1.66925e-14 2.26059e-15)
(0.9476 -1.34066e-14 -4.88896e-15)
(0.9476 3.15212e-14 -4.55117e-16)
(1.01225 -3.98304e-15 -3.25616e-15)
(1.01225 1.40284e-15 6.88374e-15)
(1.01225 2.22769e-15 1.56762e-15)
(1.01225 -9.54386e-15 -4.1475e-15)
(1.01225 -5.34854e-15 6.96462e-15)
(1.01225 1.52545e-14 1.42972e-15)
(1.01225 -1.4176e-14 -3.4437e-15)
(1.01225 -2.80774e-15 6.93063e-15)
(1.01225 1.74465e-14 1.1233e-15)
(1.012 -2.33404e-14 -3.4472e-15)
(1.012 -1.39175e-14 7.01141e-15)
(1.012 3.68057e-14 1.25648e-15)
(0.9476 -1.51311e-14 -3.21453e-15)
(0.9476 -1.39518e-14 6.47469e-15)
(0.9476 3.05693e-14 1.08472e-15)
(1.01225 -2.43814e-15 9.99382e-16)
(1.01225 3.0386e-15 -2.19379e-15)
(1.01225 1.53034e-15 -7.98485e-16)
(1.01225 -9.63352e-15 1.46649e-15)
(1.01225 -4.66851e-15 -1.84117e-15)
(1.01225 1.43072e-14 -5.38533e-16)
(1.01225 -1.03726e-14 1.17347e-15)
(1.01225 -3.25029e-15 -2.13867e-15)
(1.01225 1.55666e-14 -4.96257e-16)
(1.012 -2.43819e-14 1.33727e-15)
(1.012 -1.22343e-14 -1.95466e-15)
(1.012 3.6367e-14 -6.47725e-16)
(0.9476 -1.7112e-14 9.53942e-16)
(0.9476 -1.40746e-14 -1.58574e-15)
(0.9476 3.02429e-14 -6.29606e-16)
)
;

boundaryField
{
    inlet
    {
        type            cyclic;
    }
    outlet
    {
        type            cyclic;
    }
    bottomWall
    {
        type            fixedValue;
        value           uniform (0 0 0);
    }
    topWall
    {
        type            fixedValue;
        value           uniform (0 0 0);
    }
    left
    {
        type            cyclic;
    }
    right
    {
        type            cyclic;
    }
}


// ************************************************************************* //
