/*--------------------------------*- C++ -*----------------------------------*\
| =========                 |                                                 |
| \\      /  F ield         | OpenFOAM: The Open Source CFD Toolbox           |
|  \\    /   O peration     | Version:  3.0.1                                 |
|   \\  /    A nd           | Web:      www.OpenFOAM.org                      |
|    \\/     M anipulation  |                                                 |
\*---------------------------------------------------------------------------*/
FoamFile
{
    version     2.0;
    format      ascii;
    class       volVectorField;
    location    "3";
    object      U_0;
}
// * * * * * * * * * * * * * * * * * * * * * * * * * * * * * * * * * * * * * //

dimensions      [0 1 -1 0 0 0 0];

internalField   nonuniform List<vector> 
90
(
(0.955028 1.55384e-14 2.79404e-15)
(0.955028 1.62258e-14 -4.01744e-15)
(0.955028 -3.03874e-14 -1.24452e-15)
(1.01199 2.35677e-14 3.03863e-15)
(1.01199 1.44374e-14 -4.23337e-15)
(1.01199 -3.43345e-14 -1.11627e-15)
(1.01221 1.42425e-14 2.95197e-15)
(1.01221 4.83649e-15 -4.70445e-15)
(1.01221 -1.53291e-14 -1.14658e-15)
(1.01221 1.31142e-14 3.07109e-15)
(1.01221 6.97064e-15 -4.71339e-15)
(1.01221 -1.39328e-14 -8.19301e-16)
(1.01221 3.01512e-15 2.89831e-15)
(1.01221 -4.03632e-16 -4.87746e-15)
(1.01221 -7.19136e-16 -9.7225e-16)
(0.955028 1.58426e-14 -3.35221e-15)
(0.955028 1.23683e-14 6.98937e-15)
(0.955028 -2.70311e-14 2.17066e-15)
(1.01199 2.20823e-14 -3.5525e-15)
(1.01199 1.04896e-14 6.81544e-15)
(1.01199 -3.38173e-14 2.26208e-15)
(1.01221 1.35407e-14 -3.71989e-15)
(1.01221 2.12002e-15 7.35097e-15)
(1.01221 -1.57023e-14 1.81227e-15)
(1.01221 1.00655e-14 -3.69015e-15)
(1.01221 2.91583e-15 6.88909e-15)
(1.01221 -1.48164e-14 1.90749e-15)
(1.01221 5.0691e-16 -4.12353e-15)
(1.01221 -3.90623e-16 6.91576e-15)
(1.01221 -2.64584e-15 1.50538e-15)
(0.955028 1.49649e-14 5.58177e-16)
(0.955028 1.36402e-14 -2.97193e-15)
(0.955028 -2.88489e-14 -9.2614e-16)
(1.01199 2.14886e-14 5.13864e-16)
(1.01199 1.51832e-14 -2.58207e-15)
(1.01199 -3.54623e-14 -1.14581e-15)
(1.01221 1.33254e-14 7.6792e-16)
(1.01221 5.32182e-15 -2.64652e-15)
(1.01221 -1.76857e-14 -6.65692e-16)
(1.01221 1.04232e-14 6.19065e-16)
(1.01221 4.06922e-15 -2.17571e-15)
(1.01221 -1.59787e-14 -1.08819e-15)
(1.01221 6.0056e-15 1.22522e-15)
(1.01221 -5.52474e-16 -2.0383e-15)
(1.01221 -3.10943e-15 -5.33134e-16)
(1.01221 -2.4106e-15 2.24629e-15)
(1.01221 2.8248e-15 -4.68911e-15)
(1.01221 2.16452e-15 -7.49763e-16)
(1.01221 -8.38213e-15 2.67211e-15)
(1.01221 -4.95572e-15 -5.12211e-15)
(1.01221 1.72228e-14 -8.71005e-16)
(1.01221 -1.50036e-14 2.26178e-15)
(1.01221 -3.54947e-15 -4.78833e-15)
(1.01221 1.66716e-14 -6.11708e-16)
(1.01196 -2.37797e-14 2.10267e-15)
(1.01196 -1.21072e-14 -5.0523e-15)
(1.01196 3.66943e-14 -5.95396e-16)
(0.947766 -1.66781e-14 2.2548e-15)
(0.947766 -1.33292e-14 -4.88629e-15)
(0.947766 3.14255e-14 -4.44883e-16)
(1.01221 -3.9679e-15 -3.24158e-15)
(1.01221 1.42213e-15 6.86677e-15)
(1.01221 2.21555e-15 1.54894e-15)
(1.01221 -9.54739e-15 -4.13093e-15)
(1.01221 -5.28983e-15 6.95001e-15)
(1.01221 1.52047e-14 1.4118e-15)
(1.01221 -1.41797e-14 -3.43187e-15)
(1.01221 -2.75928e-15 6.91586e-15)
(1.01221 1.7387e-14 1.10818e-15)
(1.01196 -2.33373e-14 -3.43724e-15)
(1.01196 -1.38302e-14 6.99751e-15)
(1.01196 3.6705e-14 1.2441e-15)
(0.947766 -1.51386e-14 -3.21186e-15)
(0.947766 -1.38747e-14 6.46523e-15)
(0.947766 3.04832e-14 1.07705e-15)
(1.01221 -2.45989e-15 9.95295e-16)
(1.01221 3.05312e-15 -2.17766e-15)
(1.01221 1.5406e-15 -7.99178e-16)
(1.01221 -9.65067e-15 1.45881e-15)
(1.01221 -4.62839e-15 -1.8279e-15)
(1.01221 1.42844e-14 -5.4079e-16)
(1.01221 -1.03872e-14 1.17008e-15)
(1.01221 -3.2225e-15 -2.12754e-15)
(1.01221 1.55526e-14 -4.96473e-16)
(1.01196 -2.43855e-14 1.33457e-15)
(1.01196 -1.21473e-14 -1.94521e-15)
(1.01196 3.62917e-14 -6.48707e-16)
(0.947766 -1.71193e-14 9.5706e-16)
(0.947766 -1.39924e-14 -1.57894e-15)
(0.947766 3.01692e-14 -6.32172e-16)
)
;

boundaryField
{
    inlet
    {
        type            cyclic;
    }
    outlet
    {
        type            cyclic;
    }
    bottomWall
    {
        type            fixedValue;
        value           uniform (0 0 0);
    }
    topWall
    {
        type            fixedValue;
        value           uniform (0 0 0);
    }
    left
    {
        type            cyclic;
    }
    right
    {
        type            cyclic;
    }
}


// ************************************************************************* //
